ITEM: TIMESTEP
0
ITEM: NUMBER OF ATOMS
48
ITEM: BOX BOUNDS pp pp pp
0.0000000000000000e+00 8.7431001662999996e+00
0.0000000000000000e+00 1.0095600128199999e+01
0.0000000000000000e+00 4.4121498107900003e+01
ITEM: ATOMS id type xu yu zu q
1 1 2.91434 0 0 1.2186e-09
2 1 8.01454 3.78585 2.06092 -2.4507e-09
3 1 6.55887 1.26018 4.16833 1.26967e-09
4 1 1.45721 2.5239 2.06092 -2.45833e-09
5 1 8.74258 10.095 4.16661 1.25657e-09
6 1 7.28589 2.5239 0 1.27921e-09
7 1 5.82876 0 2.06092 -2.43581e-09
8 1 4.37351 2.51217 4.15094 1.17761e-09
9 1 2.91434 2.5239 0 1.26114e-09
10 1 1.45721 0 2.06092 -2.45541e-09
11 1 0.000222356 2.51988 4.16895 1.27862e-09
12 1 5.82876 2.5239 2.06092 -2.46226e-09
13 1 7.28589 0 0 1.23345e-09
14 1 0.728563 3.78585 0 1.25834e-09
15 1 5.10011 1.26195 0 1.24751e-09
16 1 3.64299 3.78585 2.06092 -2.41867e-09
17 1 2.18454 1.2606 4.1657 1.2498e-09
18 1 8.01454 1.26195 2.06092 -2.45476e-09
19 1 6.56946 3.77801 4.14402 1.15364e-09
20 1 0.728563 1.26195 0 1.25749e-09
21 1 5.10011 3.78585 0 1.27478e-09
22 1 3.64299 1.26195 2.06092 -2.47026e-09
23 1 2.17515 3.78138 4.15296 1.18357e-09
24 1 4.3712 10.0951 4.17043 1.29058e-09
25 1 8.74093 5.04765 4.16985 1.2534e-09
26 1 7.28589 7.5717 0 1.23056e-09
27 1 5.82876 5.0478 2.06092 -2.46995e-09
28 1 4.37183 7.58503 4.14496 1.10468e-09
29 1 2.91434 7.5717 0 1.20584e-09
30 1 1.45721 5.0478 2.06092 -2.49682e-09
31 1 8.74276 7.57499 4.16944 1.23404e-09
32 1 7.28589 5.0478 0 1.2073e-09
33 1 5.82876 7.5717 2.06092 -2.52463e-09
34 1 4.36981 5.04573 4.24592 1.60834e-09
35 1 0.728563 8.83365 0 1.22292e-09
36 1 5.10011 6.30975 0 1.23609e-09
37 1 3.64299 8.83365 2.06092 -2.52189e-09
38 1 2.17556 6.31576 4.14976 1.13742e-09
39 1 8.01454 6.30975 2.06092 -2.49076e-09
40 1 0.728563 6.30975 0 1.2216e-09
41 1 5.10011 8.83365 0 1.20595e-09
42 1 3.64299 6.30975 2.06092 -2.46823e-09
43 1 2.18474 8.83351 4.16854 1.2259e-09
44 1 8.01454 8.83365 2.06092 -2.49625e-09
45 1 6.5682 6.31643 4.14719 1.13584e-09
46 1 1.45721 7.5717 2.06092 -2.51705e-09
47 1 2.91434 5.0478 0 1.23199e-09
48 1 6.55772 8.8335 4.1698 1.23929e-09
