ITEM: TIMESTEP
0
ITEM: NUMBER OF ATOMS
51
ITEM: BOX BOUNDS pp pp pp
0.0000000000000000e+00 8.7431001662999996e+00
0.0000000000000000e+00 1.0095600128199999e+01
0.0000000000000000e+00 4.4121498107900003e+01
ITEM: ATOMS id type xu yu zu q
1 3 2.91434 0 0 0.00495352
2 3 8.01454 3.78585 2.06092 -0.0104902
3 3 6.5589 1.26023 4.16816 0.00401816
4 3 1.45721 2.5239 2.06092 -0.00809858
5 3 8.74258 10.095 4.16639 -0.00571565
6 3 7.28589 2.5239 0 0.00573244
7 3 5.82876 0 2.06092 -0.00495448
8 3 4.37347 2.51219 4.15095 0.0296273
9 3 2.91434 2.5239 0 0.0045665
10 3 1.45721 0 2.06092 -0.00427698
11 3 0.000262293 2.51986 4.16904 0.00790561
12 3 5.82876 2.5239 2.06092 -0.00719768
13 3 7.28589 0 0 0.00817883
14 3 0.728563 3.78585 0 0.00466518
15 3 5.10011 1.26195 0 0.0046543
16 3 3.64299 3.78585 2.06092 -0.013213
17 3 2.18455 1.26064 4.16551 0.00938663
18 3 8.01454 1.26195 2.06092 -0.00439825
19 3 6.56948 3.77798 4.14389 0.0173844
20 3 0.728563 1.26195 0 0.00707041
21 3 5.10011 3.78585 0 0.00445574
22 3 3.64299 1.26195 2.06092 -0.00775568
23 3 2.1752 3.78141 4.15316 0.0308922
24 3 4.3712 10.0951 4.17036 0.00656197
25 3 8.74091 5.0476 4.16992 0.0110813
26 3 7.28589 7.5717 0 0.00624023
27 3 5.82876 5.0478 2.06092 -0.0136982
28 3 4.37181 7.58503 4.14477 0.0152212
29 3 2.91434 7.5717 0 0.00489913
30 3 1.45721 5.0478 2.06092 -0.0111339
31 3 8.74275 7.57503 4.16948 0.00239279
32 3 7.28589 5.0478 0 0.00563367
33 3 5.82876 7.5717 2.06092 -0.00495901
34 3 4.3698 5.04568 4.24581 0.0831235
35 3 0.728563 8.83365 0 0.00764862
36 3 5.10011 6.30975 0 0.00457267
37 3 3.64299 8.83365 2.06092 -0.00703932
38 3 2.17555 6.31581 4.14963 0.0237777
39 3 8.01454 6.30975 2.06092 -0.00810704
40 3 0.728563 6.30975 0 0.00494089
41 3 5.10011 8.83365 0 0.00508251
42 3 3.64299 6.30975 2.06092 -0.0114319
43 3 2.18473 8.83355 4.1686 0.00428071
44 3 8.01454 8.83365 2.06092 -0.00243298
45 3 6.56817 6.31641 4.14698 0.012255
46 3 1.45721 7.5717 2.06092 -0.00531715
47 3 2.91434 5.0478 0 0.00456939
48 3 6.55776 8.83355 4.16992 -0.00101381
49 1 4.4143 6.08472 7.49082 0.228347
50 1 5.42815 4.91424 7.47449 0.231112
51 2 4.48198 5.1212 7.24169 -0.673997
