ITEM: TIMESTEP
0
ITEM: NUMBER OF ATOMS
51
ITEM: BOX BOUNDS pp pp pp
0.0000000000000000e+00 8.7431001662999996e+00
0.0000000000000000e+00 1.0095600128199999e+01
0.0000000000000000e+00 4.4121498107900003e+01
ITEM: ATOMS id type xu yu zu q
1 3 2.91434 0 0 0.00462836
2 3 8.01454 3.78585 2.06092 -0.010092
3 3 6.5589 1.26023 4.16816 0.00386249
4 3 1.45721 2.5239 2.06092 -0.00797641
5 3 8.74258 10.095 4.16639 -0.00569218
6 3 7.28589 2.5239 0 0.00556543
7 3 5.82876 0 2.06092 -0.00492276
8 3 4.37347 2.51219 4.15095 0.0303538
9 3 2.91434 2.5239 0 0.00474668
10 3 1.45721 0 2.06092 -0.00407961
11 3 0.000262293 2.51986 4.16904 0.0079828
12 3 5.82876 2.5239 2.06092 -0.00712276
13 3 7.28589 0 0 0.00840594
14 3 0.728563 3.78585 0 0.00455524
15 3 5.10011 1.26195 0 0.00474399
16 3 3.64299 3.78585 2.06092 -0.0139825
17 3 2.18455 1.26064 4.16551 0.00950654
18 3 8.01454 1.26195 2.06092 -0.00425498
19 3 6.56948 3.77798 4.14389 0.0156934
20 3 0.728563 1.26195 0 0.00691802
21 3 5.10011 3.78585 0 0.004644
22 3 3.64299 1.26195 2.06092 -0.00757527
23 3 2.1752 3.78141 4.15316 0.032212
24 3 4.3712 10.0951 4.17036 0.0065497
25 3 8.74091 5.0476 4.16992 0.0107526
26 3 7.28589 7.5717 0 0.00632273
27 3 5.82876 5.0478 2.06092 -0.014436
28 3 4.37181 7.58503 4.14477 0.0127061
29 3 2.91434 7.5717 0 0.00501853
30 3 1.45721 5.0478 2.06092 -0.0111614
31 3 8.74275 7.57503 4.16948 0.00216055
32 3 7.28589 5.0478 0 0.00555077
33 3 5.82876 7.5717 2.06092 -0.00467992
34 3 4.3698 5.04568 4.24581 0.0923369
35 3 0.728563 8.83365 0 0.00779887
36 3 5.10011 6.30975 0 0.00474605
37 3 3.64299 8.83365 2.06092 -0.00665898
38 3 2.17555 6.31581 4.14963 0.0236161
39 3 8.01454 6.30975 2.06092 -0.0076233
40 3 0.728563 6.30975 0 0.00498685
41 3 5.10011 8.83365 0 0.00502447
42 3 3.64299 6.30975 2.06092 -0.0119647
43 3 2.18473 8.83355 4.1686 0.00417052
44 3 8.01454 8.83365 2.06092 -0.0026867
45 3 6.56817 6.31641 4.14698 0.0096253
46 3 1.45721 7.5717 2.06092 -0.00521696
47 3 2.91434 5.0478 0 0.00482864
48 3 6.55776 8.83355 4.16992 -0.00138201
49 1 4.4143 6.08472 7.19082 0.233989
50 1 5.42815 4.91424 7.17449 0.23604
51 2 4.48198 5.1212 7.04169 -0.688534
