ITEM: TIMESTEP
0
ITEM: NUMBER OF ATOMS
51
ITEM: BOX BOUNDS pp pp pp
0.0000000000000000e+00 8.7431001662999996e+00
0.0000000000000000e+00 1.0095600128199999e+01
0.0000000000000000e+00 4.4121498107900003e+01
ITEM: ATOMS id type xu yu zu q
1 3 2.91434 0 0 0.00397424
2 3 8.01454 3.78585 2.06092 -0.00949554
3 3 6.5589 1.26023 4.16816 0.00375598
4 3 1.45721 2.5239 2.06092 -0.00781624
5 3 8.74258 10.095 4.16639 -0.00580978
6 3 7.28589 2.5239 0 0.00512937
7 3 5.82876 0 2.06092 -0.00503342
8 3 4.37347 2.51219 4.15095 0.0313574
9 3 2.91434 2.5239 0 0.00492195
10 3 1.45721 0 2.06092 -0.0042734
11 3 0.000262293 2.51986 4.16904 0.00780994
12 3 5.82876 2.5239 2.06092 -0.00710139
13 3 7.28589 0 0 0.00850172
14 3 0.728563 3.78585 0 0.00393854
15 3 5.10011 1.26195 0 0.00444192
16 3 3.64299 3.78585 2.06092 -0.0163236
17 3 2.18455 1.26064 4.16551 0.00921454
18 3 8.01454 1.26195 2.06092 -0.00444842
19 3 6.56948 3.77798 4.14389 0.014642
20 3 0.728563 1.26195 0 0.00677443
21 3 5.10011 3.78585 0 0.00478544
22 3 3.64299 1.26195 2.06092 -0.00733999
23 3 2.1752 3.78141 4.15316 0.033668
24 3 4.3712 10.0951 4.17036 0.00670183
25 3 8.74091 5.0476 4.16992 0.0108575
26 3 7.28589 7.5717 0 0.00605096
27 3 5.82876 5.0478 2.06092 -0.0167233
28 3 4.37181 7.58503 4.14477 0.0108609
29 3 2.91434 7.5717 0 0.00507037
30 3 1.45721 5.0478 2.06092 -0.0113258
31 3 8.74275 7.57503 4.16948 0.00213301
32 3 7.28589 5.0478 0 0.00513567
33 3 5.82876 7.5717 2.06092 -0.00453078
34 3 4.3698 5.04568 4.24581 0.119757
35 3 0.728563 8.83365 0 0.00783409
36 3 5.10011 6.30975 0 0.00485695
37 3 3.64299 8.83365 2.06092 -0.00613791
38 3 2.17555 6.31581 4.14963 0.023992
39 3 8.01454 6.30975 2.06092 -0.00713789
40 3 0.728563 6.30975 0 0.0044899
41 3 5.10011 8.83365 0 0.00452637
42 3 3.64299 6.30975 2.06092 -0.0141166
43 3 2.18473 8.83355 4.1686 0.00406326
44 3 8.01454 8.83365 2.06092 -0.00334734
45 3 6.56817 6.31641 4.14698 0.00825761
46 3 1.45721 7.5717 2.06092 -0.00521891
47 3 2.91434 5.0478 0 0.00505284
48 3 6.55776 8.83355 4.16992 -0.00130156
49 1 4.4143 6.08472 6.89082 0.230834
50 1 5.42815 4.91424 6.87449 0.232554
51 2 4.48198 5.1212 6.74169 -0.698462
