ITEM: TIMESTEP
0
ITEM: NUMBER OF ATOMS
51
ITEM: BOX BOUNDS pp pp pp
0.0000000000000000e+00 8.7431001662999996e+00
0.0000000000000000e+00 1.0095600128199999e+01
0.0000000000000000e+00 4.4121498107900003e+01
ITEM: ATOMS id type xu yu zu q
1 3 2.91434 0 0 0.00592333
2 3 8.01454 3.78585 2.06092 -0.0106336
3 3 6.5589 1.26023 4.16816 0.00444098
4 3 1.45721 2.5239 2.06092 -0.00809453
5 3 8.74258 10.095 4.16639 -0.0050533
6 3 7.28589 2.5239 0 0.00626943
7 3 5.82876 0 2.06092 -0.00474009
8 3 4.37347 2.51219 4.15095 0.0269269
9 3 2.91434 2.5239 0 0.00474462
10 3 1.45721 0 2.06092 -0.00381818
11 3 0.000262293 2.51986 4.16904 0.00793312
12 3 5.82876 2.5239 2.06092 -0.00700083
13 3 7.28589 0 0 0.00779587
14 3 0.728563 3.78585 0 0.00568976
15 3 5.10011 1.26195 0 0.00518481
16 3 3.64299 3.78585 2.06092 -0.0115747
17 3 2.18455 1.26064 4.16551 0.0094073
18 3 8.01454 1.26195 2.06092 -0.00384648
19 3 6.56948 3.77798 4.14389 0.0163959
20 3 0.728563 1.26195 0 0.00721877
21 3 5.10011 3.78585 0 0.00456119
22 3 3.64299 1.26195 2.06092 -0.00788286
23 3 2.1752 3.78141 4.15316 0.0275227
24 3 4.3712 10.0951 4.17036 0.00627628
25 3 8.74091 5.0476 4.16992 0.0108281
26 3 7.28589 7.5717 0 0.00642777
27 3 5.82876 5.0478 2.06092 -0.0115217
28 3 4.37181 7.58503 4.14477 0.0151998
29 3 2.91434 7.5717 0 0.00507509
30 3 1.45721 5.0478 2.06092 -0.0107336
31 3 8.74275 7.57503 4.16948 0.00290792
32 3 7.28589 5.0478 0 0.00636439
33 3 5.82876 7.5717 2.06092 -0.00480676
34 3 4.3698 5.04568 4.24581 0.0597551
35 3 0.728563 8.83365 0 0.00736821
36 3 5.10011 6.30975 0 0.00467884
37 3 3.64299 8.83365 2.06092 -0.00710921
38 3 2.17555 6.31581 4.14963 0.0217915
39 3 8.01454 6.30975 2.06092 -0.00828905
40 3 0.728563 6.30975 0 0.00574278
41 3 5.10011 8.83365 0 0.00565737
42 3 3.64299 6.30975 2.06092 -0.0099244
43 3 2.18473 8.83355 4.1686 0.00459211
44 3 8.01454 8.83365 2.06092 -0.001371
45 3 6.56817 6.31641 4.14698 0.0120417
46 3 1.45721 7.5717 2.06092 -0.00520538
47 3 2.91434 5.0478 0 0.00465452
48 3 6.55776 8.83355 4.16992 -0.000294144
49 1 4.4143 6.08472 7.99082 0.23193
50 1 5.42815 4.91424 7.97449 0.235106
51 2 4.48198 5.1212 7.74169 -0.664512
