# LAMMPS data file written by OVITO Basic 3.11.2

51 atoms
3 atom types

0.0 8.7431001663 xlo xhi
0.0 10.0956001282 ylo yhi
0.0 44.1214981079 zlo zhi

Masses

1 1.00794  # H
2 15.9994  # O
3 63.546  # Cu

Atoms  # atomic

1  1  3 0       2.914337578         0.000000000         0.000000000
2  1  3 0       8.014537629         3.785850048         2.060915177
3  1  3 0       6.558871159         1.260184923         4.168328898
4  1  3 0       1.457212505         2.523900032         2.060915177
5  1  3 0       8.742582873        10.094953352         4.166611569
6  1  3 0       7.285887662         2.523900032         0.000000000
7  1  3 0       5.828762588         0.000000000         2.060915177
8  1  3 0       4.373510298         2.512165083         4.150943179
9  1  3 0       2.914337578         2.523900032         0.000000000
10 1  3 0       1.457212505         0.000000000         2.060915177
11 1  3 0       0.000222356         2.519877375         4.168953076
12 1  3 0       5.828762588         2.523900032         2.060915177
13 1  3 0       7.285887662         0.000000000         0.000000000
14 1  3 0       0.728562537         3.785850048         0.000000000
15 1  3 0       5.100112620         1.261950016         0.000000000
16 1  3 0       3.642987546         3.785850048         2.060915177
17 1  3 0       2.184541900         1.260604253         4.165701623
18 1  3 0       8.014537629         1.261950016         2.060915177
19 1  3 0       6.569461532         3.778013156         4.144015104
20 1  3 0       0.728562537         1.261950016         0.000000000
21 1  3 0       5.100112620         3.785850048         0.000000000
22 1  3 0       3.642987546         1.261950016         2.060915177
23 1  3 0       2.175153339         3.781380993         4.152964259
24 1  3 0       4.371196897        10.095116474         4.170429486
25 1  3 0       8.740931629         5.047653010         4.169848895
26 1  3 0       7.285887662         7.571700096         0.000000000
27 1  3 0       5.828762588         5.047800064         2.060915177
28 1  3 0       4.371826076         7.585028854         4.144961169
29 1  3 0       2.914337578         7.571700096         0.000000000
30 1  3 0       1.457212505         5.047800064         2.060915177
31 1  3 0       8.742761759         7.574991961         4.169444319
32 1  3 0       7.285887662         5.047800064         0.000000000
33 1  3 0       5.828762588         7.571700096         2.060915177
34 1  3 0       4.369807982         5.045729121         4.245924473
35 1  3 0       0.728562537         8.833650112         0.000000000
36 1  3 0       5.100112620         6.309750080         0.000000000
37 1  3 0       3.642987546         8.833650112         2.060915177
38 1  3 0       2.175558261         6.315760085         4.149755171
39 1  3 0       8.014537629         6.309750080         2.060915177
40 1  3 0       0.728562537         6.309750080         0.000000000
41 1  3 0       5.100112620         8.833650112         0.000000000
42 1  3 0       3.642987546         6.309750080         2.060915177
43 1  3 0       2.184735101         8.833509743         4.168540833
44 1  3 0       8.014537629         8.833650112         2.060915177
45 1  3 0       6.568204273         6.316430154         4.147185935
46 1  3 0       1.457212505         7.571700096         2.060915177
47 1  3 0       2.914337578         5.047800064         0.000000000
48 1  3 0       6.557719701         8.833503261         4.169797448
49 1  1 0       4.414315098         6.084748799         6.777832770
50 1  1 0       5.428116224         4.914230808         6.761577072
51 1  2 0       4.481927225         5.121219992         6.628755577
