# LAMMPS data file written by OVITO Basic 3.11.2

51 atoms
3 atom types

0.0 8.7431001663 xlo xhi
0.0 10.0956001282 ylo yhi
0.0 44.1214981079 zlo zhi

Masses

1 1.00794  # H
2 15.9994  # O
3 63.546  # Cu

Atoms  # atomic

1  1  3 0       2.914337578         0.000000000         0.000000000
2  1  3 0       8.014537629         3.785850048         2.060915177
3  1  3 0       6.558898883         1.260233764         4.168157926
4  1  3 0       1.457212505         2.523900032         2.060915177
5  1  3 0       8.742575580        10.094994392         4.166393066
6  1  3 0       7.285887662         2.523900032         0.000000000
7  1  3 0       5.828762588         0.000000000         2.060915177
8  1  3 0       4.373473565         2.512189136         4.150950542
9  1  3 0       2.914337578         2.523900032         0.000000000
10 1  3 0       1.457212505         0.000000000         2.060915177
11 1  3 0       0.000262293         2.519861792         4.169040356
12 1  3 0       5.828762588         2.523900032         2.060915177
13 1  3 0       7.285887662         0.000000000         0.000000000
14 1  3 0       0.728562537         3.785850048         0.000000000
15 1  3 0       5.100112620         1.261950016         0.000000000
16 1  3 0       3.642987546         3.785850048         2.060915177
17 1  3 0       2.184551008         1.260637588         4.165510636
18 1  3 0       8.014537629         1.261950016         2.060915177
19 1  3 0       6.569478034         3.777975480         4.143891102
20 1  3 0       0.728562537         1.261950016         0.000000000
21 1  3 0       5.100112620         3.785850048         0.000000000
22 1  3 0       3.642987546         1.261950016         2.060915177
23 1  3 0       2.175195890         3.781407984         4.153156617
24 1  3 0       4.371200359        10.095095348         4.170364001
25 1  3 0       8.740914391         5.047598152         4.169922786
26 1  3 0       7.285887662         7.571700096         0.000000000
27 1  3 0       5.828762588         5.047800064         2.060915177
28 1  3 0       4.371812376         7.585026288         4.144773532
29 1  3 0       2.914337578         7.571700096         0.000000000
30 1  3 0       1.457212505         5.047800064         2.060915177
31 1  3 0       8.742750442         7.575031644         4.169481571
32 1  3 0       7.285887662         5.047800064         0.000000000
33 1  3 0       5.828762588         7.571700096         2.060915177
34 1  3 0       4.369801463         5.045679988         4.245811763
35 1  3 0       0.728562537         8.833650112         0.000000000
36 1  3 0       5.100112620         6.309750080         0.000000000
37 1  3 0       3.642987546         8.833650112         2.060915177
38 1  3 0       2.175545614         6.315807440         4.149626897
39 1  3 0       8.014537629         6.309750080         2.060915177
40 1  3 0       0.728562537         6.309750080         0.000000000
41 1  3 0       5.100112620         8.833650112         0.000000000
42 1  3 0       3.642987546         6.309750080         2.060915177
43 1  3 0       2.184725870         8.833549156         4.168599141
44 1  3 0       8.014537629         8.833650112         2.060915177
45 1  3 0       6.568166569         6.316413176         4.146979607
46 1  3 0       1.457212505         7.571700096         2.060915177
47 1  3 0       2.914337578         5.047800064         0.000000000
48 1  3 0       6.557762280         8.833549156         4.169922786
49 1  1 0       4.414303843         6.084719153         11.490817013
50 1  1 0       5.428153738         4.914235274         11.474492059
51 1  2 0       4.481975438         5.121195077         11.241686349
