ITEM: TIMESTEP
0
ITEM: NUMBER OF ATOMS
51
ITEM: BOX BOUNDS pp pp pp
0.0000000000000000e+00 8.7431001662999996e+00
0.0000000000000000e+00 1.0095600128199999e+01
0.0000000000000000e+00 4.4121498107900003e+01
ITEM: ATOMS id type xu yu zu q
1 3 2.91434 0 0 0.00219168
2 3 8.01454 3.78585 2.06092 -0.00566944
3 3 6.5589 1.26023 4.16816 0.00571251
4 3 1.45721 2.5239 2.06092 -0.0055117
5 3 8.74258 10.095 4.16639 -0.00529182
6 3 7.28589 2.5239 0 0.00368173
7 3 5.82876 0 2.06092 -0.00597327
8 3 4.37347 2.51219 4.15095 0.0238961
9 3 2.91434 2.5239 0 0.0066763
10 3 1.45721 0 2.06092 -0.00502958
11 3 0.000262293 2.51986 4.16904 0.00884681
12 3 5.82876 2.5239 2.06092 -0.00518689
13 3 7.28589 0 0 0.00862669
14 3 0.728563 3.78585 0 0.00209991
15 3 5.10011 1.26195 0 0.00348527
16 3 3.64299 3.78585 2.06092 -0.0366374
17 3 2.18455 1.26064 4.16551 0.00893817
18 3 8.01454 1.26195 2.06092 -0.00466752
19 3 6.56948 3.77798 4.14389 -0.0023598
20 3 0.728563 1.26195 0 0.00632823
21 3 5.10011 3.78585 0 0.0069569
22 3 3.64299 1.26195 2.06092 -0.00525375
23 3 2.1752 3.78141 4.15316 0.0264396
24 3 4.3712 10.0951 4.17036 0.00845119
25 3 8.74091 5.0476 4.16992 0.0142973
26 3 7.28589 7.5717 0 0.00465278
27 3 5.82876 5.0478 2.06092 -0.0358065
28 3 4.37181 7.58503 4.14477 -0.00903607
29 3 2.91434 7.5717 0 0.00628574
30 3 1.45721 5.0478 2.06092 -0.0106565
31 3 8.74275 7.57503 4.16948 0.00465485
32 3 7.28589 5.0478 0 0.00571361
33 3 5.82876 7.5717 2.06092 -0.00205474
34 3 4.3698 5.04568 4.24581 0.346522
35 3 0.728563 8.83365 0 0.00737403
36 3 5.10011 6.30975 0 0.00683055
37 3 3.64299 8.83365 2.06092 -0.00235983
38 3 2.17555 6.31581 4.14963 0.0138974
39 3 8.01454 6.30975 2.06092 -0.00412287
40 3 0.728563 6.30975 0 0.00286411
41 3 5.10011 8.83365 0 0.00291024
42 3 3.64299 6.30975 2.06092 -0.0336028
43 3 2.18473 8.83355 4.1686 0.00611807
44 3 8.01454 8.83365 2.06092 -0.00489148
45 3 6.56817 6.31641 4.14698 -0.00704153
46 3 1.45721 7.5717 2.06092 -0.00352952
47 3 2.91434 5.0478 0 0.00795324
48 3 6.55776 8.83355 4.16992 0.00270712
49 1 4.4143 6.08472 5.99082 0.219866
50 1 5.42815 4.91424 5.97449 0.220587
51 2 4.48198 5.1212 5.84169 -0.800883
