ITEM: TIMESTEP
0
ITEM: NUMBER OF ATOMS
51
ITEM: BOX BOUNDS pp pp pp
0.0000000000000000e+00 8.7431001662999996e+00
0.0000000000000000e+00 1.0095600128199999e+01
0.0000000000000000e+00 4.4121498107900003e+01
ITEM: ATOMS id type xu yu zu q
1 3 2.91434 0 0 0.00372571
2 3 8.01454 3.78585 2.06092 -0.00919139
3 3 6.55887 1.26018 4.16833 0.0037537
4 3 1.45721 2.5239 2.06092 -0.00770656
5 3 8.74258 10.095 4.16661 -0.00580865
6 3 7.28589 2.5239 0 0.00495172
7 3 5.82876 0 2.06092 -0.00507293
8 3 4.37351 2.51217 4.15094 0.0315039
9 3 2.91434 2.5239 0 0.00502674
10 3 1.45721 0 2.06092 -0.00434296
11 3 0.000222356 2.51988 4.16895 0.00774826
12 3 5.82876 2.5239 2.06092 -0.00704144
13 3 7.28589 0 0 0.00851415
14 3 0.728563 3.78585 0 0.00370333
15 3 5.10011 1.26195 0 0.00432281
16 3 3.64299 3.78585 2.06092 -0.0175134
17 3 2.18454 1.2606 4.1657 0.00908815
18 3 8.01454 1.26195 2.06092 -0.00449564
19 3 6.56946 3.77801 4.14402 0.0138794
20 3 0.728563 1.26195 0 0.00670759
21 3 5.10011 3.78585 0 0.00487857
22 3 3.64299 1.26195 2.06092 -0.00721047
23 3 2.17515 3.78138 4.15296 0.0339615
24 3 4.3712 10.0951 4.17043 0.00676414
25 3 8.74093 5.04765 4.16985 0.01092
26 3 7.28589 7.5717 0 0.00591906
27 3 5.82876 5.0478 2.06092 -0.0178382
28 3 4.37183 7.58503 4.14496 0.00977526
29 3 2.91434 7.5717 0 0.0051155
30 3 1.45721 5.0478 2.06092 -0.0113501
31 3 8.74276 7.57499 4.16944 0.00217585
32 3 7.28589 5.0478 0 0.00501187
33 3 5.82876 7.5717 2.06092 -0.00441246
34 3 4.36981 5.04573 4.24592 0.133374
35 3 0.728563 8.83365 0 0.00781555
36 3 5.10011 6.30975 0 0.00493301
37 3 3.64299 8.83365 2.06092 -0.00586193
38 3 2.17556 6.31576 4.14976 0.0238847
39 3 8.01454 6.30975 2.06092 -0.00689148
40 3 0.728563 6.30975 0 0.0042964
41 3 5.10011 8.83365 0 0.00432286
42 3 3.64299 6.30975 2.06092 -0.0152243
43 3 2.18474 8.83351 4.16854 0.00406193
44 3 8.01454 8.83365 2.06092 -0.00357175
45 3 6.5682 6.31643 4.14719 0.00743669
46 3 1.45721 7.5717 2.06092 -0.00517725
47 3 2.91434 5.0478 0 0.00519136
48 3 6.55772 8.8335 4.1698 -0.0011801
49 1 4.41432 6.08475 6.77783 0.229517
50 1 5.42812 4.91423 6.76158 0.231097
51 2 4.48193 5.12122 6.62876 -0.703487
