# LAMMPS data file written by OVITO Basic 3.11.2

3 atoms
2 atom types

0.0 8.7431001663 xlo xhi
0.0 10.0956001282 ylo yhi
0.0 44.1214981079 zlo zhi

Masses

1 1.00794  # H
2 15.9994  # O

Atoms  # atomic

1 1  1 0       4.414315098         6.084748799         6.777832770
2 1  1 0       5.428116224         4.914230808         6.761577072
3 1  2 0       4.481927225         5.121219992         6.628755577
