ITEM: TIMESTEP
0
ITEM: NUMBER OF ATOMS
3
ITEM: BOX BOUNDS pp pp pp
0.0000000000000000e+00 8.7431001662999996e+00
0.0000000000000000e+00 1.0095600128199999e+01
0.0000000000000000e+00 4.4121498107900003e+01
ITEM: ATOMS id type xu yu zu q
1 1 4.41432 6.08475 6.77783 0.302532
2 1 5.42812 4.91423 6.76158 0.30598
3 2 4.48193 5.12122 6.62876 -0.608512
ITEM: TIMESTEP
1
ITEM: NUMBER OF ATOMS
3
ITEM: BOX BOUNDS pp pp pp
0.0000000000000000e+00 8.7431001662999996e+00
0.0000000000000000e+00 1.0095600128199999e+01
0.0000000000000000e+00 4.4121498107900003e+01
ITEM: ATOMS id type xu yu zu q
1 1 4.41755 6.07417 6.77661 0.307701
2 1 5.41801 4.9189 6.76054 0.311126
3 2 4.4888 5.12713 6.63101 -0.618827
ITEM: TIMESTEP
2
ITEM: NUMBER OF ATOMS
3
ITEM: BOX BOUNDS pp pp pp
0.0000000000000000e+00 8.7431001662999996e+00
0.0000000000000000e+00 1.0095600128199999e+01
0.0000000000000000e+00 4.4121498107900003e+01
ITEM: ATOMS id type xu yu zu q
1 1 4.4198 6.07051 6.77639 0.308997
2 1 5.41467 4.92161 6.76038 0.312422
3 2 4.48989 5.12807 6.6314 -0.621419
ITEM: TIMESTEP
3
ITEM: NUMBER OF ATOMS
3
ITEM: BOX BOUNDS pp pp pp
0.0000000000000000e+00 8.7431001662999996e+00
0.0000000000000000e+00 1.0095600128199999e+01
0.0000000000000000e+00 4.4121498107900003e+01
ITEM: ATOMS id type xu yu zu q
1 1 4.42192 6.06798 6.77632 0.309645
2 1 5.41243 4.92403 6.76037 0.313072
3 2 4.49001 5.12819 6.63147 -0.622717
ITEM: TIMESTEP
4
ITEM: NUMBER OF ATOMS
3
ITEM: BOX BOUNDS pp pp pp
0.0000000000000000e+00 8.7431001662999996e+00
0.0000000000000000e+00 1.0095600128199999e+01
0.0000000000000000e+00 4.4121498107900003e+01
ITEM: ATOMS id type xu yu zu q
1 1 4.42395 6.06608 6.77635 0.309928
2 1 5.4108 4.92625 6.76043 0.313359
3 2 4.48961 5.12786 6.63139 -0.623287
ITEM: TIMESTEP
5
ITEM: NUMBER OF ATOMS
3
ITEM: BOX BOUNDS pp pp pp
0.0000000000000000e+00 8.7431001662999996e+00
0.0000000000000000e+00 1.0095600128199999e+01
0.0000000000000000e+00 4.4121498107900003e+01
ITEM: ATOMS id type xu yu zu q
1 1 4.42588 6.06458 6.77642 0.309999
2 1 5.40956 4.92833 6.76053 0.313435
3 2 4.48892 5.12729 6.63121 -0.623434
ITEM: TIMESTEP
6
ITEM: NUMBER OF ATOMS
3
ITEM: BOX BOUNDS pp pp pp
0.0000000000000000e+00 8.7431001662999996e+00
0.0000000000000000e+00 1.0095600128199999e+01
0.0000000000000000e+00 4.4121498107900003e+01
ITEM: ATOMS id type xu yu zu q
1 1 4.42769 6.06336 6.77651 0.309955
2 1 5.40856 4.93023 6.76065 0.313396
3 2 4.48811 5.12662 6.631 -0.623351
ITEM: TIMESTEP
7
ITEM: NUMBER OF ATOMS
3
ITEM: BOX BOUNDS pp pp pp
0.0000000000000000e+00 8.7431001662999996e+00
0.0000000000000000e+00 1.0095600128199999e+01
0.0000000000000000e+00 4.4121498107900003e+01
ITEM: ATOMS id type xu yu zu q
1 1 4.42929 6.06235 6.77661 0.309864
2 1 5.40776 4.93189 6.76076 0.31331
3 2 4.48731 5.12596 6.6308 -0.623174
