thermo          1
dump            1 all custom 1 qeq.lammps id type xu yu zu  q
thermo_style    custom step etotal pe ke ecoul
minimize	1e-4 1e-6 1000 10000

CITE-CITE-CITE-CITE-CITE-CITE-CITE-CITE-CITE-CITE-CITE-CITE-CITE

Your simulation uses code contributions which should be cited:

- Type Label Framework: https://doi.org/10.1021/acs.jpcb.3c08419

@Article{Gissinger24,
 author = {Jacob R. Gissinger, Ilia Nikiforov, Yaser Afshar, Brendon Waters, Moon-ki Choi, Daniel S. Karls, Alexander Stukowski, Wonpil Im, Hendrik Heinz, Axel Kohlmeyer, and Ellad B. Tadmor},
 title = {Type Label Framework for Bonded Force Fields in LAMMPS},
 journal = {J. Phys. Chem. B},
 year =    2024,
 volume =  128,
 number =  13,
 pages =   {3282–-3297}
}

- pair reaxff command: doi:10.1016/j.parco.2011.08.005

@Article{Aktulga12,
 author = {H. M. Aktulga and J. C. Fogarty and S. A. Pandit and A. Y. Grama},
 title = {Parallel Reactive Molecular Dynamics: {N}umerical Methods and Algorithmic Techniques},
 journal = {Parallel Computing},
 year =    2012,
 volume =  38,
 number =  {4--5},
 pages =   {245--259}
}

- fix qeq/reaxff command: doi:10.1016/j.parco.2011.08.005

@Article{Aktulga12,
 author = {H. M. Aktulga and J. C. Fogarty and S. A. Pandit and A. Y. Grama},
 title = {Parallel Reactive Molecular Dynamics: {N}umerical Methods and Algorithmic Techniques},
 journal = {Parallel Computing},
 year =    2012,
 volume =  38,
 pages =   {245--259}
}

CITE-CITE-CITE-CITE-CITE-CITE-CITE-CITE-CITE-CITE-CITE-CITE-CITE

Neighbor list info ...
  update: every = 1 steps, delay = 0 steps, check = yes
  max neighbors/atom: 2000, page size: 100000
  master list distance cutoff = 12
  ghost atom cutoff = 12
  binsize = 6, bins = 2 2 8
  2 neighbor lists, perpetual/occasional/extra = 2 0 0
  (1) pair reaxff, perpetual
      attributes: half, newton off, ghost
      pair build: half/bin/ghost/newtoff
      stencil: full/ghost/bin/3d
      bin: standard
  (2) fix qeq/reaxff, perpetual, copy from (1)
      attributes: half, newton off
      pair build: copy
      stencil: none
      bin: none
Per MPI rank memory allocation (min/avg/max) = 11.31 | 11.31 | 11.31 Mbytes
   Step         TotEng         PotEng         KinEng         E_coul    
         0  -248.1129      -248.1129       0             -33.581477    
         1  -248.71438     -248.71438      0             -34.154073    
         2  -248.82921     -248.82921      0             -34.297965    
         3  -248.89373     -248.89373      0             -34.370008    
         4  -248.93801     -248.93801      0             -34.401685    
         5  -248.97152     -248.97152      0             -34.409832    
         6  -248.99726     -248.99726      0             -34.405251    
         7  -249.01627     -249.01627      0             -34.395385    
Loop time of 0.00128789 on 1 procs for 7 steps with 3 atoms

77.0% CPU use with 1 MPI tasks x no OpenMP threads

Minimization stats:
  Stopping criterion = energy tolerance
  Energy initial, next-to-last, final = 
     -248.112901883726  -248.997263071373  -249.016271557542
  Force two-norm initial, final = 44.994374 6.1181548
  Force max component initial, final = 25.967379 3.5546265
  Final line search alpha, max atom move = 0.02354258 0.083685076
  Iterations, force evaluations = 7 14

MPI task timing breakdown:
Section |  min time  |  avg time  |  max time  |%varavg| %total
---------------------------------------------------------------
Pair    | 0.00087864 | 0.00087864 | 0.00087864 |   0.0 | 68.22
Bond    | 1.1156e-05 | 1.1156e-05 | 1.1156e-05 |   0.0 |  0.87
Neigh   | 0          | 0          | 0          |   0.0 |  0.00
Comm    | 3.2388e-05 | 3.2388e-05 | 3.2388e-05 |   0.0 |  2.51
Output  | 0.00013077 | 0.00013077 | 0.00013077 |   0.0 | 10.15
Modify  | 0.00015255 | 0.00015255 | 0.00015255 |   0.0 | 11.85
Other   |            | 8.239e-05  |            |       |  6.40

Nlocal:              3 ave           3 max           3 min
Histogram: 1 0 0 0 0 0 0 0 0 0
Nghost:             51 ave          51 max          51 min
Histogram: 1 0 0 0 0 0 0 0 0 0
Neighs:             41 ave          41 max          41 min
Histogram: 1 0 0 0 0 0 0 0 0 0

Total # of neighbors = 41
Ave neighs/atom = 13.666667
Ave special neighs/atom = 0
Neighbor list builds = 0
Dangerous builds = 0
Total wall time: 0:00:00
